# vtk DataFile Version 2.0
target_e
ASCII
DATASET POLYDATA
POINTS 48 float
-2.800000 -0.000000 81.800000
-4.000000 -0.000000 83.000000
-2.800000 -0.000000 83.000000
-4.000000 -0.000000 81.800000
-2.800000 -0.000000 80.600000
-4.000000 -0.000000 80.600000
-2.800000 0.000000 79.400000
-4.000000 0.000000 79.400000
-2.800000 0.000000 78.200000
-4.000000 0.000000 78.200000
-2.800000 0.000000 77.000000
-4.000000 0.000000 77.000000
-1.600000 -0.000000 81.800000
-1.600000 -0.000000 83.000000
-1.600000 -0.000000 80.600000
-1.600000 0.000000 79.400000
-1.600000 0.000000 78.200000
-1.600000 0.000000 77.000000
-0.400000 -0.000000 81.800000
-0.400000 -0.000000 83.000000
-0.400000 -0.000000 80.600000
-0.400000 0.000000 79.400000
-0.400000 0.000000 78.200000
-0.400000 0.000000 77.000000
0.800000 -0.000000 81.800000
0.800000 -0.000000 83.000000
0.800000 -0.000000 80.600000
0.800000 0.000000 79.400000
0.800000 0.000000 78.200000
0.800000 0.000000 77.000000
2.000000 -0.000000 81.800000
2.000000 -0.000000 83.000000
2.000000 -0.000000 80.600000
2.000000 0.000000 79.400000
2.000000 0.000000 78.200000
2.000000 0.000000 77.000000
3.200000 -0.000000 81.800000
3.200000 -0.000000 83.000000
3.200000 -0.000000 80.600000
3.200000 0.000000 79.400000
3.200000 0.000000 78.200000
3.200000 0.000000 77.000000
4.000000 -0.000000 81.800000
4.000000 -0.000000 83.000000
4.000000 -0.000000 80.600000
4.000000 0.000000 79.400000
4.000000 0.000000 78.200000
4.000000 0.000000 77.000000
POLYGONS 70 280
3 0 1 2
3 0 3 1
3 4 3 0
3 4 5 3
3 6 5 4
3 6 7 5
3 8 7 6
3 8 9 7
3 10 9 8
3 10 11 9
3 12 2 13
3 12 0 2
3 14 0 12
3 14 4 0
3 15 4 14
3 15 6 4
3 16 6 15
3 16 8 6
3 17 8 16
3 17 10 8
3 18 13 19
3 18 12 13
3 20 12 18
3 20 14 12
3 21 14 20
3 21 15 14
3 22 15 21
3 22 16 15
3 23 16 22
3 23 17 16
3 24 19 25
3 24 18 19
3 26 18 24
3 26 20 18
3 27 20 26
3 27 21 20
3 28 21 27
3 28 22 21
3 29 22 28
3 29 23 22
3 30 25 31
3 30 24 25
3 32 24 30
3 32 26 24
3 33 26 32
3 33 27 26
3 34 27 33
3 34 28 27
3 35 28 34
3 35 29 28
3 36 31 37
3 36 30 31
3 38 30 36
3 38 32 30
3 39 32 38
3 39 33 32
3 40 33 39
3 40 34 33
3 41 34 40
3 41 35 34
3 42 37 43
3 42 36 37
3 44 36 42
3 44 38 36
3 45 38 44
3 45 39 38
3 46 39 45
3 46 40 39
3 47 40 46
3 47 41 40
CELL_DATA 70
SCALARS Front_faces_Incoming_flux double 2
LOOKUP_TABLE default
181833 3162.93
200935 3316.51
382966 4574.24
328252 4223.24
500966 5217.94
370826 4479.37
476045 5086.28
318863 4160.65
278870 3901.43
174140 3082.78
329817 4277.02
399520 4698.88
897857 7046.95
806806 6659.11
1.342e+06 8589.78
982852 7333.42
1.16163e+06 7990.19
742743 6381.17
585895 5678.06
342038 4329.25
497336 5251.77
710333 6292.6
1.8811e+06 10271.8
2.00487e+06 10577.7
3.61058e+06 14190.6
2.66779e+06 12163.3
2.7184e+06 12294.8
1.64894e+06 9555.29
979299 7351.82
574179 5617.83
529046 5414.41
883449 7013.59
2.05659e+06 10744.8
3.20862e+06 13435.9
4.45703e+06 15778.3
5.0109e+06 16722.1
3.35103e+06 13678
2.56048e+06 11949.8
1.11247e+06 7834.1
725601 6311.96
374673 4561.03
694498 6215.87
1.11942e+06 7881.32
1.92427e+06 10351.8
1.84244e+06 10091.2
2.66789e+06 12166.4
1.66433e+06 9589.28
1.73682e+06 9817.86
754818 6451.93
607993 5784.81
215462 3446.69
385828 4616.69
486223 5163.61
772341 6513
694546 6156.82
970345 7288.72
646141 5939.17
776407 6524.98
381781 4574.75
357375 4431.65
134533 3328.91
207565 4131.35
252030 4535.86
346846 5320.94
327930 5160.62
396652 5680.36
310164 5019.13
343663 5294.93
215739 4198.27
187719 3923.08
SCALARS Front_faces_Absorbed_flux double 2
LOOKUP_TABLE default
163650 2846.64
180842 2984.86
344669 4116.81
295426 3800.92
450869 4696.15
333743 4031.43
428440 4577.65
286977 3744.58
250983 3511.29
156726 2774.5
296835 3849.32
359568 4228.99
808071 6342.25
726126 5993.2
1.2078e+06 7730.8
884567 6600.08
1.04547e+06 7191.17
668469 5743.05
527305 5110.26
307834 3896.33
447603 4726.59
639300 5663.34
1.69299e+06 9244.58
1.80438e+06 9519.89
3.24952e+06 12771.5
2.40101e+06 10947
2.44656e+06 11065.3
1.48405e+06 8599.76
881369 6616.64
516761 5056.04
476141 4872.96
795105 6312.23
1.85093e+06 9670.32
2.88776e+06 12092.3
4.01133e+06 14200.5
4.50981e+06 15049.9
3.01593e+06 12310.2
2.30443e+06 10754.8
1.00122e+06 7050.69
653041 5680.77
337206 4104.92
625048 5594.28
1.00747e+06 7093.19
1.73184e+06 9316.63
1.6582e+06 9082.04
2.4011e+06 10949.7
1.4979e+06 8630.35
1.56314e+06 8836.07
679337 5806.74
547193 5206.33
193916 3102.02
347245 4155.02
437601 4647.25
695107 5861.7
625091 5541.14
873310 6559.85
581527 5345.25
698767 5872.48
343603 4117.28
321638 3988.48
121080 2996.02
186809 3718.22
226827 4082.28
312161 4788.85
295137 4644.56
356987 5112.32
279148 4517.22
309296 4765.44
194165 3778.44
168947 3530.77
SCALARS Back_faces_Incoming_flux double 2
LOOKUP_TABLE default
0 0
0 0
0 0
0 0
0 0
0 0
0 0
0 0
0 0
0 0
0 0
0 0
0 0
0 0
0 0
0 0
0 0
0 0
0 0
0 0
0 0
0 0
0 0
0 0
0 0
0 0
0 0
0 0
0 0
0 0
0 0
0 0
0 0
0 0
0 0
0 0
0 0
0 0
0 0
0 0
0 0
0 0
0 0
0 0
0 0
0 0
0 0
0 0
0 0
0 0
0 0
0 0
0 0
0 0
0 0
0 0
0 0
0 0
0 0
0 0
0 0
0 0
0 0
0 0
0 0
0 0
0 0
0 0
0 0
0 0
SCALARS Back_faces_Absorbed_flux double 2
LOOKUP_TABLE default
0 0
0 0
0 0
0 0
0 0
0 0
0 0
0 0
0 0
0 0
0 0
0 0
0 0
0 0
0 0
0 0
0 0
0 0
0 0
0 0
0 0
0 0
0 0
0 0
0 0
0 0
0 0
0 0
0 0
0 0
0 0
0 0
0 0
0 0
0 0
0 0
0 0
0 0
0 0
0 0
0 0
0 0
0 0
0 0
0 0
0 0
0 0
0 0
0 0
0 0
0 0
0 0
0 0
0 0
0 0
0 0
0 0
0 0
0 0
0 0
0 0
0 0
0 0
0 0
0 0
0 0
0 0
0 0
0 0
0 0
